Written in MATLAB. Graphene a=2.836

40824 atoms
11 atom types
31752 bonds
3 bond types
27216 angles
3 angle types

0 306.288 xlo xhi
0 309.462 ylo yhi
0 60 zlo zhi

Masses

1 72.0
2 72.0
3 72.0
4 72.0
5 24.0
6 24.0
7 72.0
8 72.0
9 24.0
10 90.0
11 72.0

Atoms # full

1 1 4 0 0 0 0 0 0 0
2 2 4 0 1.418 2.45605 0 0 0 0
3 3 4 0 4.254 2.45605 0 0 0 0
4 4 4 0 5.672 0 0 0 0 0
5 5 3 0 0 0 4 0 0 0
6 6 2 0 0 0 8 0 0 0
7 7 1 0 0 0 12 0 0 0
8 8 1 0 0 0 16 0 0 0
9 9 1 0 0 0 20 0 0 0
10 10 1 0 0 0 24 0 0 0
11 11 10 0 0 0 28 0 0 0
12 12 3 0 4.254 2.45605 4 0 0 0
13 13 2 0 4.254 2.45605 8 0 0 0
14 14 1 0 4.254 2.45605 12 0 0 0
15 15 1 0 4.254 2.45605 16 0 0 0
16 16 1 0 4.254 2.45605 20 0 0 0
17 17 1 0 4.254 2.45605 24 0 0 0
18 18 10 0 4.254 2.45605 28 0 0 0
19 19 4 0 0 4.9121 0 0 0 0
20 20 4 0 1.418 7.36814 0 0 0 0
21 21 4 0 4.254 7.36814 0 0 0 0
22 22 4 0 5.672 4.9121 0 0 0 0
23 23 3 0 0 4.9121 4 0 0 0
24 24 2 0 0 4.9121 8 0 0 0
25 25 1 0 0 4.9121 12 0 0 0
26 26 1 0 0 4.9121 16 0 0 0
27 27 1 0 0 4.9121 20 0 0 0
28 28 1 0 0 4.9121 24 0 0 0
29 29 10 0 0 4.9121 28 0 0 0
30 30 3 0 4.254 7.36814 4 0 0 0
31 31 2 0 4.254 7.36814 8 0 0 0
32 32 1 0 4.254 7.36814 12 0 0 0
33 33 1 0 4.254 7.36814 16 0 0 0
34 34 1 0 4.254 7.36814 20 0 0 0
35 35 1 0 4.254 7.36814 24 0 0 0
36 36 10 0 4.254 7.36814 28 0 0 0
37 37 4 0 0 9.82419 0 0 0 0
38 38 4 0 1.418 12.2802 0 0 0 0
39 39 4 0 4.254 12.2802 0 0 0 0
40 40 4 0 5.672 9.82419 0 0 0 0
41 41 3 0 0 9.82419 4 0 0 0
42 42 2 0 0 9.82419 8 0 0 0
43 43 1 0 0 9.82419 12 0 0 0
44 44 1 0 0 9.82419 16 0 0 0
45 45 1 0 0 9.82419 20 0 0 0
46 46 1 0 0 9.82419 24 0 0 0
47 47 10 0 0 9.82419 28 0 0 0
48 48 3 0 4.254 12.2802 4 0 0 0
49 49 2 0 4.254 12.2802 8 0 0 0
50 50 1 0 4.254 12.2802 12 0 0 0
51 51 1 0 4.254 12.2802 16 0 0 0
52 52 1 0 4.254 12.2802 20 0 0 0
53 53 1 0 4.254 12.2802 24 0 0 0
54 54 10 0 4.254 12.2802 28 0 0 0
55 55 4 0 0 14.7363 0 0 0 0
56 56 4 0 1.418 17.1923 0 0 0 0
57 57 4 0 4.254 17.1923 0 0 0 0
58 58 4 0 5.672 14.7363 0 0 0 0
59 59 3 0 0 14.7363 4 0 0 0
60 60 2 0 0 14.7363 8 0 0 0
61 61 1 0 0 14.7363 12 0 0 0
62 62 1 0 0 14.7363 16 0 0 0
63 63 1 0 0 14.7363 20 0 0 0
64 64 1 0 0 14.7363 24 0 0 0
65 65 10 0 0 14.7363 28 0 0 0
66 66 3 0 4.254 17.1923 4 0 0 0
67 67 2 0 4.254 17.1923 8 0 0 0
68 68 1 0 4.254 17.1923 12 0 0 0
69 69 1 0 4.254 17.1923 16 0 0 0
70 70 1 0 4.254 17.1923 20 0 0 0
71 71 1 0 4.254 17.1923 24 0 0 0
72 72 10 0 4.254 17.1923 28 0 0 0
73 73 4 0 0 19.6484 0 0 0 0
74 74 4 0 1.418 22.1044 0 0 0 0
75 75 4 0 4.254 22.1044 0 0 0 0
76 76 4 0 5.672 19.6484 0 0 0 0
77 77 3 0 0 19.6484 4 0 0 0
78 78 2 0 0 19.6484 8 0 0 0
79 79 1 0 0 19.6484 12 0 0 0
80 80 1 0 0 19.6484 16 0 0 0
81 81 1 0 0 19.6484 20 0 0 0
82 82 1 0 0 19.6484 24 0 0 0
83 83 10 0 0 19.6484 28 0 0 0
84 84 3 0 4.254 22.1044 4 0 0 0
85 85 2 0 4.254 22.1044 8 0 0 0
86 86 1 0 4.254 22.1044 12 0 0 0
87 87 1 0 4.254 22.1044 16 0 0 0
88 88 1 0 4.254 22.1044 20 0 0 0
89 89 1 0 4.254 22.1044 24 0 0 0
90 90 10 0 4.254 22.1044 28 0 0 0
91 91 4 0 0 24.5605 0 0 0 0
92 92 4 0 1.418 27.0165 0 0 0 0
93 93 4 0 4.254 27.0165 0 0 0 0
94 94 4 0 5.672 24.5605 0 0 0 0
95 95 3 0 0 24.5605 4 0 0 0
96 96 2 0 0 24.5605 8 0 0 0
97 97 1 0 0 24.5605 12 0 0 0
98 98 1 0 0 24.5605 16 0 0 0
99 99 1 0 0 24.5605 20 0 0 0
100 100 1 0 0 24.5605 24 0 0 0
101 101 10 0 0 24.5605 28 0 0 0
102 102 3 0 4.254 27.0165 4 0 0 0
103 103 2 0 4.254 27.0165 8 0 0 0
104 104 1 0 4.254 27.0165 12 0 0 0
105 105 1 0 4.254 27.0165 16 0 0 0
106 106 1 0 4.254 27.0165 20 0 0 0
107 107 1 0 4.254 27.0165 24 0 0 0
108 108 10 0 4.254 27.0165 28 0 0 0
109 109 4 0 0 29.4726 0 0 0 0
110 110 4 0 1.418 31.9286 0 0 0 0
111 111 4 0 4.254 31.9286 0 0 0 0
112 112 4 0 5.672 29.4726 0 0 0 0
113 113 3 0 0 29.4726 4 0 0 0
114 114 2 0 0 29.4726 8 0 0 0
115 115 1 0 0 29.4726 12 0 0 0
116 116 1 0 0 29.4726 16 0 0 0
117 117 1 0 0 29.4726 20 0 0 0
118 118 1 0 0 29.4726 24 0 0 0
119 119 10 0 0 29.4726 28 0 0 0
120 120 3 0 4.254 31.9286 4 0 0 0
121 121 2 0 4.254 31.9286 8 0 0 0
122 122 1 0 4.254 31.9286 12 0 0 0
123 123 1 0 4.254 31.9286 16 0 0 0
124 124 1 0 4.254 31.9286 20 0 0 0
125 125 1 0 4.254 31.9286 24 0 0 0
126 126 10 0 4.254 31.9286 28 0 0 0
127 127 4 0 0 34.3847 0 0 0 0
128 128 4 0 1.418 36.8407 0 0 0 0
129 129 4 0 4.254 36.8407 0 0 0 0
130 130 4 0 5.672 34.3847 0 0 0 0
131 131 3 0 0 34.3847 4 0 0 0
132 132 2 0 0 34.3847 8 0 0 0
133 133 1 0 0 34.3847 12 0 0 0
134 134 1 0 0 34.3847 16 0 0 0
135 135 1 0 0 34.3847 20 0 0 0
136 136 1 0 0 34.3847 24 0 0 0
137 137 10 0 0 34.3847 28 0 0 0
138 138 3 0 4.254 36.8407 4 0 0 0
139 139 2 0 4.254 36.8407 8 0 0 0
140 140 1 0 4.254 36.8407 12 0 0 0
141 141 1 0 4.254 36.8407 16 0 0 0
142 142 1 0 4.254 36.8407 20 0 0 0
143 143 1 0 4.254 36.8407 24 0 0 0
144 144 10 0 4.254 36.8407 28 0 0 0
145 145 4 0 0 39.2968 0 0 0 0
146 146 4 0 1.418 41.7528 0 0 0 0
147 147 4 0 4.254 41.7528 0 0 0 0
148 148 4 0 5.672 39.2968 0 0 0 0
149 149 3 0 0 39.2968 4 0 0 0
150 150 2 0 0 39.2968 8 0 0 0
151 151 1 0 0 39.2968 12 0 0 0
152 152 1 0 0 39.2968 16 0 0 0
153 153 1 0 0 39.2968 20 0 0 0
154 154 1 0 0 39.2968 24 0 0 0
155 155 10 0 0 39.2968 28 0 0 0
156 156 3 0 4.254 41.7528 4 0 0 0
157 157 2 0 4.254 41.7528 8 0 0 0
158 158 1 0 4.254 41.7528 12 0 0 0
159 159 1 0 4.254 41.7528 16 0 0 0
160 160 1 0 4.254 41.7528 20 0 0 0
161 161 1 0 4.254 41.7528 24 0 0 0
162 162 10 0 4.254 41.7528 28 0 0 0
163 163 4 0 0 44.2089 0 0 0 0
164 164 4 0 1.418 46.6649 0 0 0 0
165 165 4 0 4.254 46.6649 0 0 0 0
166 166 4 0 5.672 44.2089 0 0 0 0
167 167 3 0 0 44.2089 4 0 0 0
168 168 2 0 0 44.2089 8 0 0 0
169 169 1 0 0 44.2089 12 0 0 0
170 170 1 0 0 44.2089 16 0 0 0
171 171 1 0 0 44.2089 20 0 0 0
172 172 1 0 0 44.2089 24 0 0 0
173 173 10 0 0 44.2089 28 0 0 0
174 174 3 0 4.254 46.6649 4 0 0 0
175 175 2 0 4.254 46.6649 8 0 0 0
176 176 1 0 4.254 46.6649 12 0 0 0
177 177 1 0 4.254 46.6649 16 0 0 0
178 178 1 0 4.254 46.6649 20 0 0 0
179 179 1 0 4.254 46.6649 24 0 0 0
180 180 10 0 4.254 46.6649 28 0 0 0
181 181 4 0 0 49.121 0 0 0 0
182 182 4 0 1.418 51.577 0 0 0 0
183 183 4 0 4.254 51.577 0 0 0 0
184 184 4 0 5.672 49.121 0 0 0 0
185 185 3 0 0 49.121 4 0 0 0
186 186 2 0 0 49.121 8 0 0 0
187 187 1 0 0 49.121 12 0 0 0
188 188 1 0 0 49.121 16 0 0 0
189 189 1 0 0 49.121 20 0 0 0
190 190 1 0 0 49.121 24 0 0 0
191 191 10 0 0 49.121 28 0 0 0
192 192 3 0 4.254 51.577 4 0 0 0
193 193 2 0 4.254 51.577 8 0 0 0
194 194 1 0 4.254 51.577 12 0 0 0
195 195 1 0 4.254 51.577 16 0 0 0
196 196 1 0 4.254 51.577 20 0 0 0
197 197 1 0 4.254 51.577 24 0 0 0
198 198 10 0 4.254 51.577 28 0 0 0
199 199 4 0 0 54.0331 0 0 0 0
200 200 4 0 1.418 56.4891 0 0 0 0
201 201 4 0 4.254 56.4891 0 0 0 0
202 202 4 0 5.672 54.0331 0 0 0 0
203 203 3 0 0 54.0331 4 0 0 0
204 204 2 0 0 54.0331 8 0 0 0
205 205 1 0 0 54.0331 12 0 0 0
206 206 1 0 0 54.0331 16 0 0 0
207 207 1 0 0 54.0331 20 0 0 0
208 208 1 0 0 54.0331 24 0 0 0
209 209 10 0 0 54.0331 28 0 0 0
210 210 3 0 4.254 56.4891 4 0 0 0
211 211 2 0 4.254 56.4891 8 0 0 0
212 212 1 0 4.254 56.4891 12 0 0 0
213 213 1 0 4.254 56.4891 16 0 0 0
214 214 1 0 4.254 56.4891 20 0 0 0
215 215 1 0 4.254 56.4891 24 0 0 0
216 216 10 0 4.254 56.4891 28 0 0 0
217 217 4 0 0 58.9452 0 0 0 0
218 218 4 0 1.418 61.4012 0 0 0 0
219 219 4 0 4.254 61.4012 0 0 0 0
220 220 4 0 5.672 58.9452 0 0 0 0
221 221 3 0 0 58.9452 4 0 0 0
222 222 2 0 0 58.9452 8 0 0 0
223 223 1 0 0 58.9452 12 0 0 0
224 224 1 0 0 58.9452 16 0 0 0
225 225 1 0 0 58.9452 20 0 0 0
226 226 1 0 0 58.9452 24 0 0 0
227 227 10 0 0 58.9452 28 0 0 0
228 228 3 0 4.254 61.4012 4 0 0 0
229 229 2 0 4.254 61.4012 8 0 0 0
230 230 1 0 4.254 61.4012 12 0 0 0
231 231 1 0 4.254 61.4012 16 0 0 0
232 232 1 0 4.254 61.4012 20 0 0 0
233 233 1 0 4.254 61.4012 24 0 0 0
234 234 10 0 4.254 61.4012 28 0 0 0
235 235 4 0 0 63.8572 0 0 0 0
236 236 4 0 1.418 66.3133 0 0 0 0
237 237 4 0 4.254 66.3133 0 0 0 0
238 238 4 0 5.672 63.8572 0 0 0 0
239 239 3 0 0 63.8572 4 0 0 0
240 240 2 0 0 63.8572 8 0 0 0
241 241 1 0 0 63.8572 12 0 0 0
242 242 1 0 0 63.8572 16 0 0 0
243 243 1 0 0 63.8572 20 0 0 0
244 244 1 0 0 63.8572 24 0 0 0
245 245 10 0 0 63.8572 28 0 0 0
246 246 3 0 4.254 66.3133 4 0 0 0
247 247 2 0 4.254 66.3133 8 0 0 0
248 248 1 0 4.254 66.3133 12 0 0 0
249 249 1 0 4.254 66.3133 16 0 0 0
250 250 1 0 4.254 66.3133 20 0 0 0
251 251 1 0 4.254 66.3133 24 0 0 0
252 252 10 0 4.254 66.3133 28 0 0 0
253 253 4 0 0 68.7693 0 0 0 0
254 254 4 0 1.418 71.2254 0 0 0 0
255 255 4 0 4.254 71.2254 0 0 0 0
256 256 4 0 5.672 68.7693 0 0 0 0
257 257 3 0 0 68.7693 4 0 0 0
258 258 2 0 0 68.7693 8 0 0 0
259 259 1 0 0 68.7693 12 0 0 0
260 260 1 0 0 68.7693 16 0 0 0
261 261 1 0 0 68.7693 20 0 0 0
262 262 1 0 0 68.7693 24 0 0 0
263 263 10 0 0 68.7693 28 0 0 0
264 264 3 0 4.254 71.2254 4 0 0 0
265 265 2 0 4.254 71.2254 8 0 0 0
266 266 1 0 4.254 71.2254 12 0 0 0
267 267 1 0 4.254 71.2254 16 0 0 0
268 268 1 0 4.254 71.2254 20 0 0 0
269 269 1 0 4.254 71.2254 24 0 0 0
270 270 10 0 4.254 71.2254 28 0 0 0
271 271 4 0 0 73.6814 0 0 0 0
272 272 4 0 1.418 76.1375 0 0 0 0
273 273 4 0 4.254 76.1375 0 0 0 0
274 274 4 0 5.672 73.6814 0 0 0 0
275 275 3 0 0 73.6814 4 0 0 0
276 276 2 0 0 73.6814 8 0 0 0
277 277 1 0 0 73.6814 12 0 0 0
278 278 1 0 0 73.6814 16 0 0 0
279 279 1 0 0 73.6814 20 0 0 0
280 280 1 0 0 73.6814 24 0 0 0
281 281 10 0 0 73.6814 28 0 0 0
282 282 3 0 4.254 76.1375 4 0 0 0
283 283 2 0 4.254 76.1375 8 0 0 0
284 284 1 0 4.254 76.1375 12 0 0 0
285 285 1 0 4.254 76.1375 16 0 0 0
286 286 1 0 4.254 76.1375 20 0 0 0
287 287 1 0 4.254 76.1375 24 0 0 0
288 288 10 0 4.254 76.1375 28 0 0 0
289 289 4 0 0 78.5935 0 0 0 0
290 290 4 0 1.418 81.0496 0 0 0 0
291 291 4 0 4.254 81.0496 0 0 0 0
292 292 4 0 5.672 78.5935 0 0 0 0
293 293 3 0 0 78.5935 4 0 0 0
294 294 2 0 0 78.5935 8 0 0 0
295 295 1 0 0 78.5935 12 0 0 0
296 296 1 0 0 78.5935 16 0 0 0
297 297 1 0 0 78.5935 20 0 0 0
298 298 1 0 0 78.5935 24 0 0 0
299 299 10 0 0 78.5935 28 0 0 0
300 300 3 0 4.254 81.0496 4 0 0 0
301 301 2 0 4.254 81.0496 8 0 0 0
302 302 1 0 4.254 81.0496 12 0 0 0
303 303 1 0 4.254 81.0496 16 0 0 0
304 304 1 0 4.254 81.0496 20 0 0 0
305 305 1 0 4.254 81.0496 24 0 0 0
306 306 10 0 4.254 81.0496 28 0 0 0
307 307 4 0 0 83.5056 0 0 0 0
308 308 4 0 1.418 85.9617 0 0 0 0
309 309 4 0 4.254 85.9617 0 0 0 0
310 310 4 0 5.672 83.5056 0 0 0 0
311 311 3 0 0 83.5056 4 0 0 0
312 312 2 0 0 83.5056 8 0 0 0
313 313 1 0 0 83.5056 12 0 0 0
314 314 1 0 0 83.5056 16 0 0 0
315 315 1 0 0 83.5056 20 0 0 0
316 316 1 0 0 83.5056 24 0 0 0
317 317 10 0 0 83.5056 28 0 0 0
318 318 3 0 4.254 85.9617 4 0 0 0
319 319 2 0 4.254 85.9617 8 0 0 0
320 320 1 0 4.254 85.9617 12 0 0 0
321 321 1 0 4.254 85.9617 16 0 0 0
322 322 1 0 4.254 85.9617 20 0 0 0
323 323 1 0 4.254 85.9617 24 0 0 0
324 324 10 0 4.254 85.9617 28 0 0 0
325 325 4 0 0 88.4177 0 0 0 0
326 326 4 0 1.418 90.8738 0 0 0 0
327 327 4 0 4.254 90.8738 0 0 0 0
328 328 4 0 5.672 88.4177 0 0 0 0
329 329 3 0 0 88.4177 4 0 0 0
330 330 2 0 0 88.4177 8 0 0 0
331 331 1 0 0 88.4177 12 0 0 0
332 332 1 0 0 88.4177 16 0 0 0
333 333 1 0 0 88.4177 20 0 0 0
334 334 1 0 0 88.4177 24 0 0 0
335 335 10 0 0 88.4177 28 0 0 0
336 336 3 0 4.254 90.8738 4 0 0 0
337 337 2 0 4.254 90.8738 8 0 0 0
338 338 1 0 4.254 90.8738 12 0 0 0
339 339 1 0 4.254 90.8738 16 0 0 0
340 340 1 0 4.254 90.8738 20 0 0 0
341 341 1 0 4.254 90.8738 24 0 0 0
342 342 10 0 4.254 90.8738 28 0 0 0
343 343 4 0 0 93.3298 0 0 0 0
344 344 4 0 1.418 95.7859 0 0 0 0
345 345 4 0 4.254 95.7859 0 0 0 0
346 346 4 0 5.672 93.3298 0 0 0 0
347 347 3 0 0 93.3298 4 0 0 0
348 348 2 0 0 93.3298 8 0 0 0
349 349 1 0 0 93.3298 12 0 0 0
350 350 1 0 0 93.3298 16 0 0 0
351 351 1 0 0 93.3298 20 0 0 0
352 352 1 0 0 93.3298 24 0 0 0
353 353 10 0 0 93.3298 28 0 0 0
354 354 3 0 4.254 95.7859 4 0 0 0
355 355 2 0 4.254 95.7859 8 0 0 0
356 356 1 0 4.254 95.7859 12 0 0 0
357 357 1 0 4.254 95.7859 16 0 0 0
358 358 1 0 4.254 95.7859 20 0 0 0
359 359 1 0 4.254 95.7859 24 0 0 0
360 360 10 0 4.254 95.7859 28 0 0 0
361 361 4 0 0 98.2419 0 0 0 0
362 362 4 0 1.418 100.698 0 0 0 0
363 363 4 0 4.254 100.698 0 0 0 0
364 364 4 0 5.672 98.2419 0 0 0 0
365 365 3 0 0 98.2419 4 0 0 0
366 366 2 0 0 98.2419 8 0 0 0
367 367 1 0 0 98.2419 12 0 0 0
368 368 1 0 0 98.2419 16 0 0 0
369 369 1 0 0 98.2419 20 0 0 0
370 370 1 0 0 98.2419 24 0 0 0
371 371 10 0 0 98.2419 28 0 0 0
372 372 3 0 4.254 100.698 4 0 0 0
373 373 2 0 4.254 100.698 8 0 0 0
374 374 1 0 4.254 100.698 12 0 0 0
375 375 1 0 4.254 100.698 16 0 0 0
376 376 1 0 4.254 100.698 20 0 0 0
377 377 1 0 4.254 100.698 24 0 0 0
378 378 10 0 4.254 100.698 28 0 0 0
379 379 4 0 0 103.154 0 0 0 0
380 380 4 0 1.418 105.61 0 0 0 0
381 381 4 0 4.254 105.61 0 0 0 0
382 382 4 0 5.672 103.154 0 0 0 0
383 383 3 0 0 103.154 4 0 0 0
384 384 2 0 0 103.154 8 0 0 0
385 385 1 0 0 103.154 12 0 0 0
386 386 1 0 0 103.154 16 0 0 0
387 387 1 0 0 103.154 20 0 0 0
388 388 1 0 0 103.154 24 0 0 0
389 389 10 0 0 103.154 28 0 0 0
390 390 3 0 4.254 105.61 4 0 0 0
391 391 2 0 4.254 105.61 8 0 0 0
392 392 1 0 4.254 105.61 12 0 0 0
393 393 1 0 4.254 105.61 16 0 0 0
394 394 1 0 4.254 105.61 20 0 0 0
395 395 1 0 4.254 105.61 24 0 0 0
396 396 10 0 4.254 105.61 28 0 0 0
397 397 4 0 0 108.066 0 0 0 0
398 398 4 0 1.418 110.522 0 0 0 0
399 399 4 0 4.254 110.522 0 0 0 0
400 400 4 0 5.672 108.066 0 0 0 0
401 401 3 0 0 108.066 4 0 0 0
402 402 2 0 0 108.066 8 0 0 0
403 403 1 0 0 108.066 12 0 0 0
404 404 1 0 0 108.066 16 0 0 0
405 405 1 0 0 108.066 20 0 0 0
406 406 1 0 0 108.066 24 0 0 0
407 407 10 0 0 108.066 28 0 0 0
408 408 3 0 4.254 110.522 4 0 0 0
409 409 2 0 4.254 110.522 8 0 0 0
410 410 1 0 4.254 110.522 12 0 0 0
411 411 1 0 4.254 110.522 16 0 0 0
412 412 1 0 4.254 110.522 20 0 0 0
413 413 1 0 4.254 110.522 24 0 0 0
414 414 10 0 4.254 110.522 28 0 0 0
415 415 4 0 0 112.978 0 0 0 0
416 416 4 0 1.418 115.434 0 0 0 0
417 417 4 0 4.254 115.434 0 0 0 0
418 418 4 0 5.672 112.978 0 0 0 0
419 419 3 0 0 112.978 4 0 0 0
420 420 2 0 0 112.978 8 0 0 0
421 421 1 0 0 112.978 12 0 0 0
422 422 1 0 0 112.978 16 0 0 0
423 423 1 0 0 112.978 20 0 0 0
424 424 1 0 0 112.978 24 0 0 0
425 425 10 0 0 112.978 28 0 0 0
426 426 3 0 4.254 115.434 4 0 0 0
427 427 2 0 4.254 115.434 8 0 0 0
428 428 1 0 4.254 115.434 12 0 0 0
429 429 1 0 4.254 115.434 16 0 0 0
430 430 1 0 4.254 115.434 20 0 0 0
431 431 1 0 4.254 115.434 24 0 0 0
432 432 10 0 4.254 115.434 28 0 0 0
433 433 4 0 0 117.89 0 0 0 0
434 434 4 0 1.418 120.346 0 0 0 0
435 435 4 0 4.254 120.346 0 0 0 0
436 436 4 0 5.672 117.89 0 0 0 0
437 437 3 0 0 117.89 4 0 0 0
438 438 2 0 0 117.89 8 0 0 0
439 439 1 0 0 117.89 12 0 0 0
440 440 1 0 0 117.89 16 0 0 0
441 441 1 0 0 117.89 20 0 0 0
442 442 1 0 0 117.89 24 0 0 0
443 443 10 0 0 117.89 28 0 0 0
444 444 3 0 4.254 120.346 4 0 0 0
445 445 2 0 4.254 120.346 8 0 0 0
446 446 1 0 4.254 120.346 12 0 0 0
447 447 1 0 4.254 120.346 16 0 0 0
448 448 1 0 4.254 120.346 20 0 0 0
449 449 1 0 4.254 120.346 24 0 0 0
450 450 10 0 4.254 120.346 28 0 0 0
451 451 4 0 0 122.802 0 0 0 0
452 452 4 0 1.418 125.258 0 0 0 0
453 453 4 0 4.254 125.258 0 0 0 0
454 454 4 0 5.672 122.802 0 0 0 0
455 455 3 0 0 122.802 4 0 0 0
456 456 2 0 0 122.802 8 0 0 0
457 457 1 0 0 122.802 12 0 0 0
458 458 1 0 0 122.802 16 0 0 0
459 459 1 0 0 122.802 20 0 0 0
460 460 1 0 0 122.802 24 0 0 0
461 461 10 0 0 122.802 28 0 0 0
462 462 3 0 4.254 125.258 4 0 0 0
463 463 2 0 4.254 125.258 8 0 0 0
464 464 1 0 4.254 125.258 12 0 0 0
465 465 1 0 4.254 125.258 16 0 0 0
466 466 1 0 4.254 125.258 20 0 0 0
467 467 1 0 4.254 125.258 24 0 0 0
468 468 10 0 4.254 125.258 28 0 0 0
469 469 4 0 0 127.714 0 0 0 0
470 470 4 0 1.418 130.171 0 0 0 0
471 471 4 0 4.254 130.171 0 0 0 0
472 472 4 0 5.672 127.714 0 0 0 0
473 473 3 0 0 127.714 4 0 0 0
474 474 2 0 0 127.714 8 0 0 0
475 475 1 0 0 127.714 12 0 0 0
476 476 1 0 0 127.714 16 0 0 0
477 477 1 0 0 127.714 20 0 0 0
478 478 1 0 0 127.714 24 0 0 0
479 479 10 0 0 127.714 28 0 0 0
480 480 3 0 4.254 130.171 4 0 0 0
481 481 2 0 4.254 130.171 8 0 0 0
482 482 1 0 4.254 130.171 12 0 0 0
483 483 1 0 4.254 130.171 16 0 0 0
484 484 1 0 4.254 130.171 20 0 0 0
485 485 1 0 4.254 130.171 24 0 0 0
486 486 10 0 4.254 130.171 28 0 0 0
487 487 4 0 0 132.627 0 0 0 0
488 488 4 0 1.418 135.083 0 0 0 0
489 489 4 0 4.254 135.083 0 0 0 0
490 490 4 0 5.672 132.627 0 0 0 0
491 491 3 0 0 132.627 4 0 0 0
492 492 2 0 0 132.627 8 0 0 0
493 493 1 0 0 132.627 12 0 0 0
494 494 1 0 0 132.627 16 0 0 0
495 495 1 0 0 132.627 20 0 0 0
496 496 1 0 0 132.627 24 0 0 0
497 497 10 0 0 132.627 28 0 0 0
498 498 3 0 4.254 135.083 4 0 0 0
499 499 2 0 4.254 135.083 8 0 0 0
500 500 1 0 4.254 135.083 12 0 0 0
501 501 1 0 4.254 135.083 16 0 0 0
502 502 1 0 4.254 135.083 20 0 0 0
503 503 1 0 4.254 135.083 24 0 0 0
504 504 10 0 4.254 135.083 28 0 0 0
505 505 4 0 0 137.539 0 0 0 0
506 506 4 0 1.418 139.995 0 0 0 0
507 507 4 0 4.254 139.995 0 0 0 0
508 508 4 0 5.672 137.539 0 0 0 0
509 509 3 0 0 137.539 4 0 0 0
510 510 2 0 0 137.539 8 0 0 0
511 511 1 0 0 137.539 12 0 0 0
512 512 1 0 0 137.539 16 0 0 0
513 513 1 0 0 137.539 20 0 0 0
514 514 1 0 0 137.539 24 0 0 0
515 515 10 0 0 137.539 28 0 0 0
516 516 3 0 4.254 139.995 4 0 0 0
517 517 2 0 4.254 139.995 8 0 0 0
518 518 1 0 4.254 139.995 12 0 0 0
519 519 1 0 4.254 139.995 16 0 0 0
520 520 1 0 4.254 139.995 20 0 0 0
521 521 1 0 4.254 139.995 24 0 0 0
522 522 10 0 4.254 139.995 28 0 0 0
523 523 4 0 0 142.451 0 0 0 0
524 524 4 0 1.418 144.907 0 0 0 0
525 525 4 0 4.254 144.907 0 0 0 0
526 526 4 0 5.672 142.451 0 0 0 0
527 527 3 0 0 142.451 4 0 0 0
528 528 2 0 0 142.451 8 0 0 0
529 529 1 0 0 142.451 12 0 0 0
530 530 1 0 0 142.451 16 0 0 0
531 531 1 0 0 142.451 20 0 0 0
532 532 1 0 0 142.451 24 0 0 0
533 533 10 0 0 142.451 28 0 0 0
534 534 3 0 4.254 144.907 4 0 0 0
535 535 2 0 4.254 144.907 8 0 0 0
536 536 1 0 4.254 144.907 12 0 0 0
537 537 1 0 4.254 144.907 16 0 0 0
538 538 1 0 4.254 144.907 20 0 0 0
539 539 1 0 4.254 144.907 24 0 0 0
540 540 10 0 4.254 144.907 28 0 0 0
541 541 4 0 0 147.363 0 0 0 0
542 542 4 0 1.418 149.819 0 0 0 0
543 543 4 0 4.254 149.819 0 0 0 0
544 544 4 0 5.672 147.363 0 0 0 0
545 545 3 0 0 147.363 4 0 0 0
546 546 2 0 0 147.363 8 0 0 0
547 547 1 0 0 147.363 12 0 0 0
548 548 1 0 0 147.363 16 0 0 0
549 549 1 0 0 147.363 20 0 0 0
550 550 1 0 0 147.363 24 0 0 0
551 551 10 0 0 147.363 28 0 0 0
552 552 3 0 4.254 149.819 4 0 0 0
553 553 2 0 4.254 149.819 8 0 0 0
554 554 1 0 4.254 149.819 12 0 0 0
555 555 1 0 4.254 149.819 16 0 0 0
556 556 1 0 4.254 149.819 20 0 0 0
557 557 1 0 4.254 149.819 24 0 0 0
558 558 10 0 4.254 149.819 28 0 0 0
559 559 4 0 0 152.275 0 0 0 0
560 560 4 0 1.418 154.731 0 0 0 0
561 561 4 0 4.254 154.731 0 0 0 0
562 562 4 0 5.672 152.275 0 0 0 0
563 563 3 0 0 152.275 4 0 0 0
564 564 2 0 0 152.275 8 0 0 0
565 565 1 0 0 152.275 12 0 0 0
566 566 1 0 0 152.275 16 0 0 0
567 567 1 0 0 152.275 20 0 0 0
568 568 1 0 0 152.275 24 0 0 0
569 569 10 0 0 152.275 28 0 0 0
570 570 3 0 4.254 154.731 4 0 0 0
571 571 2 0 4.254 154.731 8 0 0 0
572 572 1 0 4.254 154.731 12 0 0 0
573 573 1 0 4.254 154.731 16 0 0 0
574 574 1 0 4.254 154.731 20 0 0 0
575 575 1 0 4.254 154.731 24 0 0 0
576 576 10 0 4.254 154.731 28 0 0 0
577 577 4 0 0 157.187 0 0 0 0
578 578 4 0 1.418 159.643 0 0 0 0
579 579 4 0 4.254 159.643 0 0 0 0
580 580 4 0 5.672 157.187 0 0 0 0
581 581 3 0 0 157.187 4 0 0 0
582 582 2 0 0 157.187 8 0 0 0
583 583 1 0 0 157.187 12 0 0 0
584 584 1 0 0 157.187 16 0 0 0
585 585 1 0 0 157.187 20 0 0 0
586 586 1 0 0 157.187 24 0 0 0
587 587 10 0 0 157.187 28 0 0 0
588 588 3 0 4.254 159.643 4 0 0 0
589 589 2 0 4.254 159.643 8 0 0 0
590 590 1 0 4.254 159.643 12 0 0 0
591 591 1 0 4.254 159.643 16 0 0 0
592 592 1 0 4.254 159.643 20 0 0 0
593 593 1 0 4.254 159.643 24 0 0 0
594 594 10 0 4.254 159.643 28 0 0 0
595 595 4 0 0 162.099 0 0 0 0
596 596 4 0 1.418 164.555 0 0 0 0
597 597 4 0 4.254 164.555 0 0 0 0
598 598 4 0 5.672 162.099 0 0 0 0
599 599 3 0 0 162.099 4 0 0 0
600 600 2 0 0 162.099 8 0 0 0
601 601 1 0 0 162.099 12 0 0 0
602 602 1 0 0 162.099 16 0 0 0
603 603 1 0 0 162.099 20 0 0 0
604 604 1 0 0 162.099 24 0 0 0
605 605 10 0 0 162.099 28 0 0 0
606 606 3 0 4.254 164.555 4 0 0 0
607 607 2 0 4.254 164.555 8 0 0 0
608 608 1 0 4.254 164.555 12 0 0 0
609 609 1 0 4.254 164.555 16 0 0 0
610 610 1 0 4.254 164.555 20 0 0 0
611 611 1 0 4.254 164.555 24 0 0 0
612 612 10 0 4.254 164.555 28 0 0 0
613 613 4 0 0 167.011 0 0 0 0
614 614 4 0 1.418 169.467 0 0 0 0
615 615 4 0 4.254 169.467 0 0 0 0
616 616 4 0 5.672 167.011 0 0 0 0
617 617 3 0 0 167.011 4 0 0 0
618 618 2 0 0 167.011 8 0 0 0
619 619 1 0 0 167.011 12 0 0 0
620 620 1 0 0 167.011 16 0 0 0
621 621 1 0 0 167.011 20 0 0 0
622 622 1 0 0 167.011 24 0 0 0
623 623 10 0 0 167.011 28 0 0 0
624 624 3 0 4.254 169.467 4 0 0 0
625 625 2 0 4.254 169.467 8 0 0 0
626 626 1 0 4.254 169.467 12 0 0 0
627 627 1 0 4.254 169.467 16 0 0 0
628 628 1 0 4.254 169.467 20 0 0 0
629 629 1 0 4.254 169.467 24 0 0 0
630 630 10 0 4.254 169.467 28 0 0 0
631 631 4 0 0 171.923 0 0 0 0
632 632 4 0 1.418 174.379 0 0 0 0
633 633 4 0 4.254 174.379 0 0 0 0
634 634 4 0 5.672 171.923 0 0 0 0
635 635 3 0 0 171.923 4 0 0 0
636 636 2 0 0 171.923 8 0 0 0
637 637 1 0 0 171.923 12 0 0 0
638 638 1 0 0 171.923 16 0 0 0
639 639 1 0 0 171.923 20 0 0 0
640 640 1 0 0 171.923 24 0 0 0
641 641 10 0 0 171.923 28 0 0 0
642 642 3 0 4.254 174.379 4 0 0 0
643 643 2 0 4.254 174.379 8 0 0 0
644 644 1 0 4.254 174.379 12 0 0 0
645 645 1 0 4.254 174.379 16 0 0 0
646 646 1 0 4.254 174.379 20 0 0 0
647 647 1 0 4.254 174.379 24 0 0 0
648 648 10 0 4.254 174.379 28 0 0 0
649 649 4 0 0 176.835 0 0 0 0
650 650 4 0 1.418 179.292 0 0 0 0
651 651 4 0 4.254 179.292 0 0 0 0
652 652 4 0 5.672 176.835 0 0 0 0
653 653 3 0 0 176.835 4 0 0 0
654 654 2 0 0 176.835 8 0 0 0
655 655 1 0 0 176.835 12 0 0 0
656 656 1 0 0 176.835 16 0 0 0
657 657 1 0 0 176.835 20 0 0 0
658 658 1 0 0 176.835 24 0 0 0
659 659 10 0 0 176.835 28 0 0 0
660 660 3 0 4.254 179.292 4 0 0 0
661 661 2 0 4.254 179.292 8 0 0 0
662 662 1 0 4.254 179.292 12 0 0 0
663 663 1 0 4.254 179.292 16 0 0 0
664 664 1 0 4.254 179.292 20 0 0 0
665 665 1 0 4.254 179.292 24 0 0 0
666 666 10 0 4.254 179.292 28 0 0 0
667 667 4 0 0 181.748 0 0 0 0
668 668 4 0 1.418 184.204 0 0 0 0
669 669 4 0 4.254 184.204 0 0 0 0
670 670 4 0 5.672 181.748 0 0 0 0
671 671 3 0 0 181.748 4 0 0 0
672 672 2 0 0 181.748 8 0 0 0
673 673 1 0 0 181.748 12 0 0 0
674 674 1 0 0 181.748 16 0 0 0
675 675 1 0 0 181.748 20 0 0 0
676 676 1 0 0 181.748 24 0 0 0
677 677 10 0 0 181.748 28 0 0 0
678 678 3 0 4.254 184.204 4 0 0 0
679 679 2 0 4.254 184.204 8 0 0 0
680 680 1 0 4.254 184.204 12 0 0 0
681 681 1 0 4.254 184.204 16 0 0 0
682 682 1 0 4.254 184.204 20 0 0 0
683 683 1 0 4.254 184.204 24 0 0 0
684 684 10 0 4.254 184.204 28 0 0 0
685 685 4 0 0 186.66 0 0 0 0
686 686 4 0 1.418 189.116 0 0 0 0
687 687 4 0 4.254 189.116 0 0 0 0
688 688 4 0 5.672 186.66 0 0 0 0
689 689 3 0 0 186.66 4 0 0 0
690 690 2 0 0 186.66 8 0 0 0
691 691 1 0 0 186.66 12 0 0 0
692 692 1 0 0 186.66 16 0 0 0
693 693 1 0 0 186.66 20 0 0 0
694 694 1 0 0 186.66 24 0 0 0
695 695 10 0 0 186.66 28 0 0 0
696 696 3 0 4.254 189.116 4 0 0 0
697 697 2 0 4.254 189.116 8 0 0 0
698 698 1 0 4.254 189.116 12 0 0 0
699 699 1 0 4.254 189.116 16 0 0 0
700 700 1 0 4.254 189.116 20 0 0 0
701 701 1 0 4.254 189.116 24 0 0 0
702 702 10 0 4.254 189.116 28 0 0 0
703 703 4 0 0 191.572 0 0 0 0
704 704 4 0 1.418 194.028 0 0 0 0
705 705 4 0 4.254 194.028 0 0 0 0
706 706 4 0 5.672 191.572 0 0 0 0
707 707 3 0 0 191.572 4 0 0 0
708 708 2 0 0 191.572 8 0 0 0
709 709 1 0 0 191.572 12 0 0 0
710 710 1 0 0 191.572 16 0 0 0
711 711 1 0 0 191.572 20 0 0 0
712 712 1 0 0 191.572 24 0 0 0
713 713 10 0 0 191.572 28 0 0 0
714 714 3 0 4.254 194.028 4 0 0 0
715 715 2 0 4.254 194.028 8 0 0 0
716 716 1 0 4.254 194.028 12 0 0 0
717 717 1 0 4.254 194.028 16 0 0 0
718 718 1 0 4.254 194.028 20 0 0 0
719 719 1 0 4.254 194.028 24 0 0 0
720 720 10 0 4.254 194.028 28 0 0 0
721 721 4 0 0 196.484 0 0 0 0
722 722 4 0 1.418 198.94 0 0 0 0
723 723 4 0 4.254 198.94 0 0 0 0
724 724 4 0 5.672 196.484 0 0 0 0
725 725 3 0 0 196.484 4 0 0 0
726 726 2 0 0 196.484 8 0 0 0
727 727 1 0 0 196.484 12 0 0 0
728 728 1 0 0 196.484 16 0 0 0
729 729 1 0 0 196.484 20 0 0 0
730 730 1 0 0 196.484 24 0 0 0
731 731 10 0 0 196.484 28 0 0 0
732 732 3 0 4.254 198.94 4 0 0 0
733 733 2 0 4.254 198.94 8 0 0 0
734 734 1 0 4.254 198.94 12 0 0 0
735 735 1 0 4.254 198.94 16 0 0 0
736 736 1 0 4.254 198.94 20 0 0 0
737 737 1 0 4.254 198.94 24 0 0 0
738 738 10 0 4.254 198.94 28 0 0 0
739 739 4 0 0 201.396 0 0 0 0
740 740 4 0 1.418 203.852 0 0 0 0
741 741 4 0 4.254 203.852 0 0 0 0
742 742 4 0 5.672 201.396 0 0 0 0
743 743 3 0 0 201.396 4 0 0 0
744 744 2 0 0 201.396 8 0 0 0
745 745 1 0 0 201.396 12 0 0 0
746 746 1 0 0 201.396 16 0 0 0
747 747 1 0 0 201.396 20 0 0 0
748 748 1 0 0 201.396 24 0 0 0
749 749 10 0 0 201.396 28 0 0 0
750 750 3 0 4.254 203.852 4 0 0 0
751 751 2 0 4.254 203.852 8 0 0 0
752 752 1 0 4.254 203.852 12 0 0 0
753 753 1 0 4.254 203.852 16 0 0 0
754 754 1 0 4.254 203.852 20 0 0 0
755 755 1 0 4.254 203.852 24 0 0 0
756 756 10 0 4.254 203.852 28 0 0 0
757 757 4 0 0 206.308 0 0 0 0
758 758 4 0 1.418 208.764 0 0 0 0
759 759 4 0 4.254 208.764 0 0 0 0
760 760 4 0 5.672 206.308 0 0 0 0
761 761 3 0 0 206.308 4 0 0 0
762 762 2 0 0 206.308 8 0 0 0
763 763 1 0 0 206.308 12 0 0 0
764 764 1 0 0 206.308 16 0 0 0
765 765 1 0 0 206.308 20 0 0 0
766 766 1 0 0 206.308 24 0 0 0
767 767 10 0 0 206.308 28 0 0 0
768 768 3 0 4.254 208.764 4 0 0 0
769 769 2 0 4.254 208.764 8 0 0 0
770 770 1 0 4.254 208.764 12 0 0 0
771 771 1 0 4.254 208.764 16 0 0 0
772 772 1 0 4.254 208.764 20 0 0 0
773 773 1 0 4.254 208.764 24 0 0 0
774 774 10 0 4.254 208.764 28 0 0 0
775 775 4 0 0 211.22 0 0 0 0
776 776 4 0 1.418 213.676 0 0 0 0
777 777 4 0 4.254 213.676 0 0 0 0
778 778 4 0 5.672 211.22 0 0 0 0
779 779 3 0 0 211.22 4 0 0 0
780 780 2 0 0 211.22 8 0 0 0
781 781 1 0 0 211.22 12 0 0 0
782 782 1 0 0 211.22 16 0 0 0
783 783 1 0 0 211.22 20 0 0 0
784 784 1 0 0 211.22 24 0 0 0
785 785 10 0 0 211.22 28 0 0 0
786 786 3 0 4.254 213.676 4 0 0 0
787 787 2 0 4.254 213.676 8 0 0 0
788 788 1 0 4.254 213.676 12 0 0 0
789 789 1 0 4.254 213.676 16 0 0 0
790 790 1 0 4.254 213.676 20 0 0 0
791 791 1 0 4.254 213.676 24 0 0 0
792 792 10 0 4.254 213.676 28 0 0 0
793 793 4 0 0 216.132 0 0 0 0
794 794 4 0 1.418 218.588 0 0 0 0
795 795 4 0 4.254 218.588 0 0 0 0
796 796 4 0 5.672 216.132 0 0 0 0
797 797 3 0 0 216.132 4 0 0 0
798 798 2 0 0 216.132 8 0 0 0
799 799 1 0 0 216.132 12 0 0 0
800 800 1 0 0 216.132 16 0 0 0
801 801 1 0 0 216.132 20 0 0 0
802 802 1 0 0 216.132 24 0 0 0
803 803 10 0 0 216.132 28 0 0 0
804 804 3 0 4.254 218.588 4 0 0 0
805 805 2 0 4.254 218.588 8 0 0 0
806 806 1 0 4.254 218.588 12 0 0 0
807 807 1 0 4.254 218.588 16 0 0 0
808 808 1 0 4.254 218.588 20 0 0 0
809 809 1 0 4.254 218.588 24 0 0 0
810 810 10 0 4.254 218.588 28 0 0 0
811 811 4 0 0 221.044 0 0 0 0
812 812 4 0 1.418 223.5 0 0 0 0
813 813 4 0 4.254 223.5 0 0 0 0
814 814 4 0 5.672 221.044 0 0 0 0
815 815 3 0 0 221.044 4 0 0 0
816 816 2 0 0 221.044 8 0 0 0
817 817 1 0 0 221.044 12 0 0 0
818 818 1 0 0 221.044 16 0 0 0
819 819 1 0 0 221.044 20 0 0 0
820 820 1 0 0 221.044 24 0 0 0
821 821 10 0 0 221.044 28 0 0 0
822 822 3 0 4.254 223.5 4 0 0 0
823 823 2 0 4.254 223.5 8 0 0 0
824 824 1 0 4.254 223.5 12 0 0 0
825 825 1 0 4.254 223.5 16 0 0 0
826 826 1 0 4.254 223.5 20 0 0 0
827 827 1 0 4.254 223.5 24 0 0 0
828 828 10 0 4.254 223.5 28 0 0 0
829 829 4 0 0 225.956 0 0 0 0
830 830 4 0 1.418 228.412 0 0 0 0
831 831 4 0 4.254 228.412 0 0 0 0
832 832 4 0 5.672 225.956 0 0 0 0
833 833 3 0 0 225.956 4 0 0 0
834 834 2 0 0 225.956 8 0 0 0
835 835 1 0 0 225.956 12 0 0 0
836 836 1 0 0 225.956 16 0 0 0
837 837 1 0 0 225.956 20 0 0 0
838 838 1 0 0 225.956 24 0 0 0
839 839 10 0 0 225.956 28 0 0 0
840 840 3 0 4.254 228.412 4 0 0 0
841 841 2 0 4.254 228.412 8 0 0 0
842 842 1 0 4.254 228.412 12 0 0 0
843 843 1 0 4.254 228.412 16 0 0 0
844 844 1 0 4.254 228.412 20 0 0 0
845 845 1 0 4.254 228.412 24 0 0 0
846 846 10 0 4.254 228.412 28 0 0 0
847 847 4 0 0 230.869 0 0 0 0
848 848 4 0 1.418 233.325 0 0 0 0
849 849 4 0 4.254 233.325 0 0 0 0
850 850 4 0 5.672 230.869 0 0 0 0
851 851 3 0 0 230.869 4 0 0 0
852 852 2 0 0 230.869 8 0 0 0
853 853 1 0 0 230.869 12 0 0 0
854 854 1 0 0 230.869 16 0 0 0
855 855 1 0 0 230.869 20 0 0 0
856 856 1 0 0 230.869 24 0 0 0
857 857 10 0 0 230.869 28 0 0 0
858 858 3 0 4.254 233.325 4 0 0 0
859 859 2 0 4.254 233.325 8 0 0 0
860 860 1 0 4.254 233.325 12 0 0 0
861 861 1 0 4.254 233.325 16 0 0 0
862 862 1 0 4.254 233.325 20 0 0 0
863 863 1 0 4.254 233.325 24 0 0 0
864 864 10 0 4.254 233.325 28 0 0 0
865 865 4 0 0 235.781 0 0 0 0
866 866 4 0 1.418 238.237 0 0 0 0
867 867 4 0 4.254 238.237 0 0 0 0
868 868 4 0 5.672 235.781 0 0 0 0
869 869 3 0 0 235.781 4 0 0 0
870 870 2 0 0 235.781 8 0 0 0
871 871 1 0 0 235.781 12 0 0 0
872 872 1 0 0 235.781 16 0 0 0
873 873 1 0 0 235.781 20 0 0 0
874 874 1 0 0 235.781 24 0 0 0
875 875 10 0 0 235.781 28 0 0 0
876 876 3 0 4.254 238.237 4 0 0 0
877 877 2 0 4.254 238.237 8 0 0 0
878 878 1 0 4.254 238.237 12 0 0 0
879 879 1 0 4.254 238.237 16 0 0 0
880 880 1 0 4.254 238.237 20 0 0 0
881 881 1 0 4.254 238.237 24 0 0 0
882 882 10 0 4.254 238.237 28 0 0 0
883 883 4 0 0 240.693 0 0 0 0
884 884 4 0 1.418 243.149 0 0 0 0
885 885 4 0 4.254 243.149 0 0 0 0
886 886 4 0 5.672 240.693 0 0 0 0
887 887 3 0 0 240.693 4 0 0 0
888 888 2 0 0 240.693 8 0 0 0
889 889 1 0 0 240.693 12 0 0 0
890 890 1 0 0 240.693 16 0 0 0
891 891 1 0 0 240.693 20 0 0 0
892 892 1 0 0 240.693 24 0 0 0
893 893 10 0 0 240.693 28 0 0 0
894 894 3 0 4.254 243.149 4 0 0 0
895 895 2 0 4.254 243.149 8 0 0 0
896 896 1 0 4.254 243.149 12 0 0 0
897 897 1 0 4.254 243.149 16 0 0 0
898 898 1 0 4.254 243.149 20 0 0 0
899 899 1 0 4.254 243.149 24 0 0 0
900 900 10 0 4.254 243.149 28 0 0 0
901 901 4 0 0 245.605 0 0 0 0
902 902 4 0 1.418 248.061 0 0 0 0
903 903 4 0 4.254 248.061 0 0 0 0
904 904 4 0 5.672 245.605 0 0 0 0
905 905 3 0 0 245.605 4 0 0 0
906 906 2 0 0 245.605 8 0 0 0
907 907 1 0 0 245.605 12 0 0 0
908 908 1 0 0 245.605 16 0 0 0
909 909 1 0 0 245.605 20 0 0 0
910 910 1 0 0 245.605 24 0 0 0
911 911 10 0 0 245.605 28 0 0 0
912 912 3 0 4.254 248.061 4 0 0 0
913 913 2 0 4.254 248.061 8 0 0 0
914 914 1 0 4.254 248.061 12 0 0 0
915 915 1 0 4.254 248.061 16 0 0 0